 Entering Link 1 = d:\softwares\Gaussian09\l1.exe PID=     18516.
  
 Copyright (c) 1988,1990,1992,1993,1995,1998,2003,2009,2010,
            Gaussian, Inc.  All Rights Reserved.
  
 This is part of the Gaussian(R) 09 program.  It is based on
 the Gaussian(R) 03 system (copyright 2003, Gaussian, Inc.),
 the Gaussian(R) 98 system (copyright 1998, Gaussian, Inc.),
 the Gaussian(R) 94 system (copyright 1995, Gaussian, Inc.),
 the Gaussian 92(TM) system (copyright 1992, Gaussian, Inc.),
 the Gaussian 90(TM) system (copyright 1990, Gaussian, Inc.),
 the Gaussian 88(TM) system (copyright 1988, Gaussian, Inc.),
 the Gaussian 86(TM) system (copyright 1986, Carnegie Mellon
 University), and the Gaussian 82(TM) system (copyright 1983,
 Carnegie Mellon University). Gaussian is a federally registered
 trademark of Gaussian, Inc.
  
 This software contains proprietary and confidential information,
 including trade secrets, belonging to Gaussian, Inc.
  
 This software is provided under written license and may be
 used, copied, transmitted, or stored only in accord with that
 written license.
  
 The following legend is applicable only to US Government
 contracts under FAR:
  
                    RESTRICTED RIGHTS LEGEND
  
 Use, reproduction and disclosure by the US Government is
 subject to restrictions as set forth in subparagraphs (a)
 and (c) of the Commercial Computer Software - Restricted
 Rights clause in FAR 52.227-19.
  
 Gaussian, Inc.
 340 Quinnipiac St., Bldg. 40, Wallingford CT 06492
  
  
 ---------------------------------------------------------------
 Warning -- This program may not be used in any manner that
 competes with the business of Gaussian, Inc. or will provide
 assistance to any competitor of Gaussian, Inc.  The licensee
 of this program is prohibited from giving any competitor of
 Gaussian, Inc. access to this program.  By using this program,
 the user acknowledges that Gaussian, Inc. is engaged in the
 business of creating and licensing software in the field of
 computational chemistry and represents and warrants to the
 licensee that it is not a competitor of Gaussian, Inc. and that
 it will not use this program in any manner prohibited above.
 ---------------------------------------------------------------
  

 Cite this work as:
 Gaussian 09, Revision B.01,
 M. J. Frisch, G. W. Trucks, H. B. Schlegel, G. E. Scuseria, 
 M. A. Robb, J. R. Cheeseman, G. Scalmani, V. Barone, B. Mennucci, 
 G. A. Petersson, H. Nakatsuji, M. Caricato, X. Li, H. P. Hratchian, 
 A. F. Izmaylov, J. Bloino, G. Zheng, J. L. Sonnenberg, M. Hada, 
 M. Ehara, K. Toyota, R. Fukuda, J. Hasegawa, M. Ishida, T. Nakajima, 
 Y. Honda, O. Kitao, H. Nakai, T. Vreven, J. A. Montgomery, Jr., 
 J. E. Peralta, F. Ogliaro, M. Bearpark, J. J. Heyd, E. Brothers, 
 K. N. Kudin, V. N. Staroverov, T. Keith, R. Kobayashi, J. Normand, 
 K. Raghavachari, A. Rendell, J. C. Burant, S. S. Iyengar, J. Tomasi, 
 M. Cossi, N. Rega, J. M. Millam, M. Klene, J. E. Knox, J. B. Cross, 
 V. Bakken, C. Adamo, J. Jaramillo, R. Gomperts, R. E. Stratmann, 
 O. Yazyev, A. J. Austin, R. Cammi, C. Pomelli, J. W. Ochterski, 
 R. L. Martin, K. Morokuma, V. G. Zakrzewski, G. A. Voth, 
 P. Salvador, J. J. Dannenberg, S. Dapprich, A. D. Daniels, 
 O. Farkas, J. B. Foresman, J. V. Ortiz, J. Cioslowski, 
 and D. J. Fox, Gaussian, Inc., Wallingford CT, 2010.
 
 ******************************************
 Gaussian 09:  IA32W-G09RevB.01 12-Aug-2010
                20-Dec-2019 
 ******************************************
 %chk=CH4.chk
 ------------------------------------------------------
 #p hf geom=connectivity output=wfn cc-pVDZ IOp(5/33=1)
 ------------------------------------------------------
 1/38=1,57=2/1;
 2/12=2,17=6,18=5,40=1/2;
 3/5=16,11=9,16=1,25=1,30=1/1,2,3;
 4//1;
 5/5=2,33=1,38=5/2;
 6/7=2,8=2,9=2,10=2,28=1/1;
 99/5=1,6=100,9=1/99;
 Leave Link    1 at Fri Dec 20 10:04:50 2019, MaxMem=          0 cpu:       0.0
 (Enter d:\softwares\Gaussian09\l101.exe)
 -----------------
 CH4-HFSCF-cc-pVDZ
 -----------------
 Symbolic Z-matrix:
 Charge =  0 Multiplicity = 1
 C                    -0.4978    0.30015   0. 
 H                    -0.14115  -0.70866   0. 
 H                    -0.14113   0.80454   0.87365 
 H                    -0.14113   0.80454  -0.87365 
 H                    -1.5678    0.30016   0. 
 
 NAtoms=      5 NQM=      5 NQMF=      0 NMic=      0 NMicF=      0 NTot=      5.
                    Isotopes and Nuclear Properties:
 (Nuclear quadrupole moments (NQMom) in fm**2, nuclear magnetic moments (NMagM)
  in nuclear magnetons)

  Atom         1           2           3           4           5
 IAtWgt=          12           1           1           1           1
 AtmWgt=  12.0000000   1.0078250   1.0078250   1.0078250   1.0078250
 NucSpn=           0           1           1           1           1
 AtZEff=   0.0000000   0.0000000   0.0000000   0.0000000   0.0000000
 NQMom=    0.0000000   0.0000000   0.0000000   0.0000000   0.0000000
 NMagM=    0.0000000   2.7928460   2.7928460   2.7928460   2.7928460
 Leave Link  101 at Fri Dec 20 10:04:50 2019, MaxMem=   33554432 cpu:       0.0
 (Enter d:\softwares\Gaussian09\l202.exe)
                          Input orientation:                          
 ---------------------------------------------------------------------
 Center     Atomic      Atomic             Coordinates (Angstroms)
 Number     Number       Type             X           Y           Z
 ---------------------------------------------------------------------
      1          6           0       -0.497804    0.300146    0.000000
      2          1           0       -0.141149   -0.708664    0.000000
      3          1           0       -0.141131    0.804545    0.873652
      4          1           0       -0.141131    0.804545   -0.873652
      5          1           0       -1.567804    0.300160    0.000000
 ---------------------------------------------------------------------
                    Distance matrix (angstroms):
                    1          2          3          4          5
     1  C    0.000000
     2  H    1.070000   0.000000
     3  H    1.070000   1.747302   0.000000
     4  H    1.070000   1.747302   1.747303   0.000000
     5  H    1.070000   1.747303   1.747303   1.747303   0.000000
 Stoichiometry    CH4
 Framework group  T[O(C),4C3(H)]
 Deg. of freedom     1
 Full point group                 T       NOp  12
 Largest Abelian subgroup         D2      NOp   4
 Largest concise Abelian subgroup D2      NOp   4
                         Standard orientation:                         
 ---------------------------------------------------------------------
 Center     Atomic      Atomic             Coordinates (Angstroms)
 Number     Number       Type             X           Y           Z
 ---------------------------------------------------------------------
      1          6           0        0.000000    0.000000    0.000000
      2          1           0        0.617765    0.617765    0.617765
      3          1           0       -0.617765   -0.617765    0.617765
      4          1           0       -0.617765    0.617765   -0.617765
      5          1           0        0.617765   -0.617765   -0.617765
 ---------------------------------------------------------------------
 Rotational constants (GHZ):    164.2463785    164.2463785    164.2463785
 Leave Link  202 at Fri Dec 20 10:04:50 2019, MaxMem=   33554432 cpu:       0.0
 (Enter d:\softwares\Gaussian09\l301.exe)
 Standard basis: CC-pVDZ (5D, 7F)
 Ernie: Thresh=  0.10000D-02 Tol=  0.10000D-05 Strict=F.
 Ernie:  2 primitive shells out of 42 were deleted.
 There are    10 symmetry adapted basis functions of A   symmetry.
 There are     8 symmetry adapted basis functions of B1  symmetry.
 There are     8 symmetry adapted basis functions of B2  symmetry.
 There are     8 symmetry adapted basis functions of B3  symmetry.
 Integral buffers will be    262144 words long.
 Raffenetti 1 integral format.
 Two-electron integral symmetry is turned on.
    34 basis functions,    61 primitive gaussians,    35 cartesian basis functions
     5 alpha electrons        5 beta electrons
       nuclear repulsion energy        13.6865185517 Hartrees.
 IExCor=    0 DFT=F Ex=HF Corr=None ExCW=0 ScaHFX=  1.000000
 ScaDFX=  1.000000  1.000000  1.000000  1.000000 ScalE2=  1.000000  1.000000
 IRadAn=      0 IRanWt=     -1 IRanGd=            0 ICorTp=0
 NAtoms=    5 NActive=    5 NUniq=    2 SFac= 4.00D+00 NAtFMM=   50 NAOKFM=F Big=F
 Leave Link  301 at Fri Dec 20 10:04:50 2019, MaxMem=   33554432 cpu:       0.0
 (Enter d:\softwares\Gaussian09\l302.exe)
 NPDir=0 NMtPBC=     1 NCelOv=     1 NCel=       1 NClECP=     1 NCelD=      1
         NCelK=      1 NCelE2=     1 NClLst=     1 CellRange=     0.0.
 One-electron integrals computed using PRISM.
 One-electron integral symmetry used in STVInt
 NBasis=    34 RedAO= T  NBF=    10     8     8     8
 NBsUse=    34 1.00D-06 NBFU=    10     8     8     8
 Leave Link  302 at Fri Dec 20 10:04:50 2019, MaxMem=   33554432 cpu:       0.0
 (Enter d:\softwares\Gaussian09\l303.exe)
 DipDrv:  MaxL=1.
 Leave Link  303 at Fri Dec 20 10:04:50 2019, MaxMem=   33554432 cpu:       0.0
 (Enter d:\softwares\Gaussian09\l401.exe)
 Harris functional with IExCor=  205 diagonalized for initial guess.
 ExpMin= 1.22D-01 ExpMax= 6.67D+03 ExpMxC= 2.28D+02 IAcc=1 IRadAn=         1 AccDes= 0.00D+00
 HarFok:  IExCor=  205 AccDes= 0.00D+00 IRadAn=         1 IDoV= 1
 ScaDFX=  1.000000  1.000000  1.000000  1.000000
 FoFCou: FMM=F IPFlag=           0 FMFlag=      100000 FMFlg1=           0
         NFxFlg=           0 DoJE=T BraDBF=F KetDBF=T FulRan=T
         Omega=  0.000000  0.000000  1.000000  0.000000  0.000000 ICntrl=     500 IOpCl=  0
         NMat0=    1 NMatS0=    1 NMatT0=    0 NMatD0=    1 NMtDS0=    0 NMtDT0=    0
         I1Cent=           4 NGrid=           0.
 Petite list used in FoFCou.
 Harris En= -40.3710639869186    
 Initial guess orbital symmetries:
       Occupied  (A) (A) (T) (T) (T)
       Virtual   (A) (T) (T) (T) (T) (T) (T) (T) (T) (T) (A) (E)
                 (E) (A) (T) (T) (T) (T) (T) (T) (T) (T) (T) (E)
                 (E) (T) (T) (T) (A)
 The electronic state of the initial guess is 1-A.
 Leave Link  401 at Fri Dec 20 10:04:51 2019, MaxMem=   33554432 cpu:       1.0
 (Enter d:\softwares\Gaussian09\l502.exe)
 A Direct SCF calculation will be performed.
 Pruned (  75, 302) grid will be used in CalDFT.
 Closed shell SCF:
 Requested convergence on RMS density matrix=1.00D-08 within 128 cycles.
 Requested convergence on MAX density matrix=1.00D-06.
 Requested convergence on             energy=1.00D-06.
 No special actions if energy rises.
 Using DIIS extrapolation, IDIIS=  1040.
 Integral symmetry usage will be decided dynamically.
 ReadGW:  IGet=1 IStart=        4494 Next=        4494 LGW=           0.
 NBasis=       34 NAllTT=      630 NAllSq=     1225 NWIIB=         0
 INEq=         15 LenNEq=       68 IIJ=         578 ID=          649
 IDD=        1874 IDA=         649 IDB=        1279 IF=         2428
 IFF=        3653 IFA=        2428 IFB=        3058 IScr2=      4207
 IV=         4494 IBuf2E=     4494 IMin1=     22394 IMin=      22394
 IEnd=      22394 IOpCl=         0
 Keep R1 ints in memory in canonical form, NReq=1041173.
 IEnd=       22394 IEndB=       22394 NGot=    33554432 MDV=    33351146
 LenX=    33351146 LenY=    33349480
 Symmetry not used in FoFDir.
 MinBra= 0 MaxBra= 2 Meth= 1.
 IRaf=       0 NMat=   1 IRICut=       1 DoRegI=T DoRafI=F ISym2E= 0 JSym2E=0.
 PrsmSu:  NPrtUS=   1 ThrOK=F IAlg=1 NPAlg=1 LenDen=           0.
 Prism:   IPart=     0 DynPar=F LinDyn=F Incr=         147.
 PRISM was handed    33334821 working-precision words and   171 shell-pairs
 IPart=  0 NShTot=       14706 NBatch=         260 AvBLen=        56.6
 PrSmSu:  NxtVal=            148.
 Selected VarAcc= 1.

 Cycle   1  Pass 1  IDiag  1:
 One-electron energy=-0.819833566592D+02
 1/2 <PG(P)>=          28.221604307700
 E= -40.0752337998043    
 DIIS: error= 7.51D-02 at cycle   1 NSaved=   1.
 NSaved= 1 IEnMin= 1 EnMin= -40.0752337998043     IErMin= 1 ErrMin= 7.51D-02
 ErrMax= 7.51D-02 EMaxC= 1.00D-01 BMatC= 1.21D-01 BMatP= 1.21D-01
 IDIUse=3 WtCom= 2.49D-01 WtEn= 7.51D-01
 Coeff-Com:  0.100D+01
 Coeff-En:   0.100D+01
 Coeff:      0.100D+01
 Gap=     0.660 Goal=   None    Shift=    0.000
 GapD=    0.660 DampG=2.000 DampE=0.500 DampFc=1.0000 IDamp=-1.
 RMSDP=1.00D-02 MaxDP=1.29D-01              OVMax= 1.43D-01

 Cycle   2  Pass 1  IDiag  1:
 One-electron energy=-0.794541989863D+02
 1/2 <PG(P)>=          25.587654973350
 E= -40.1800254612817     Delta-E=       -0.104791661477 Rises=F Damp=F
 DIIS: error= 2.89D-02 at cycle   2 NSaved=   2.
 NSaved= 2 IEnMin= 2 EnMin= -40.1800254612817     IErMin= 2 ErrMin= 2.89D-02
 ErrMax= 2.89D-02 EMaxC= 1.00D-01 BMatC= 1.82D-02 BMatP= 1.21D-01
 IDIUse=3 WtCom= 7.11D-01 WtEn= 2.89D-01
 Coeff-Com:  0.262D+00 0.738D+00
 Coeff-En:   0.000D+00 0.100D+01
 Coeff:      0.186D+00 0.814D+00
 Gap=     0.753 Goal=   None    Shift=    0.000
 RMSDP=2.93D-03 MaxDP=3.37D-02 DE=-1.05D-01 OVMax= 4.12D-02

 Cycle   3  Pass 1  IDiag  1:
 One-electron energy=-0.802609599133D+02
 1/2 <PG(P)>=          26.377313891488
 E= -40.1971274701324     Delta-E=       -0.017102008851 Rises=F Damp=F
 DIIS: error= 3.67D-03 at cycle   3 NSaved=   3.
 NSaved= 3 IEnMin= 3 EnMin= -40.1971274701324     IErMin= 3 ErrMin= 3.67D-03
 ErrMax= 3.67D-03 EMaxC= 1.00D-01 BMatC= 2.83D-04 BMatP= 1.82D-02
 IDIUse=3 WtCom= 9.63D-01 WtEn= 3.67D-02
 Coeff-Com: -0.342D-01 0.340D-01 0.100D+01
 Coeff-En:   0.000D+00 0.000D+00 0.100D+01
 Coeff:     -0.330D-01 0.327D-01 0.100D+01
 Gap=     0.743 Goal=   None    Shift=    0.000
 RMSDP=4.52D-04 MaxDP=4.81D-03 DE=-1.71D-02 OVMax= 6.30D-03

 Cycle   4  Pass 1  IDiag  1:
 One-electron energy=-0.801661413254D+02
 1/2 <PG(P)>=          26.282142130638
 E= -40.1974806430352     Delta-E=       -0.000353172903 Rises=F Damp=F
 DIIS: error= 4.35D-04 at cycle   4 NSaved=   4.
 NSaved= 4 IEnMin= 4 EnMin= -40.1974806430352     IErMin= 4 ErrMin= 4.35D-04
 ErrMax= 4.35D-04 EMaxC= 1.00D-01 BMatC= 3.29D-06 BMatP= 2.83D-04
 IDIUse=3 WtCom= 9.96D-01 WtEn= 4.35D-03
 Coeff-Com:  0.936D-02-0.252D-01-0.351D+00 0.137D+01
 Coeff-En:   0.000D+00 0.000D+00 0.000D+00 0.100D+01
 Coeff:      0.932D-02-0.250D-01-0.350D+00 0.137D+01
 Gap=     0.743 Goal=   None    Shift=    0.000
 RMSDP=1.06D-04 MaxDP=6.33D-04 DE=-3.53D-04 OVMax= 1.10D-03

 Cycle   5  Pass 1  IDiag  1:
 One-electron energy=-0.801674047238D+02
 1/2 <PG(P)>=          26.283398440400
 E= -40.1974877317569     Delta-E=       -0.000007088722 Rises=F Damp=F
 DIIS: error= 2.49D-05 at cycle   5 NSaved=   5.
 NSaved= 5 IEnMin= 5 EnMin= -40.1974877317569     IErMin= 5 ErrMin= 2.49D-05
 ErrMax= 2.49D-05 EMaxC= 1.00D-01 BMatC= 1.80D-08 BMatP= 3.29D-06
 IDIUse=1 WtCom= 1.00D+00 WtEn= 0.00D+00
 Coeff-Com: -0.189D-02 0.540D-02 0.755D-01-0.339D+00 0.126D+01
 Coeff:     -0.189D-02 0.540D-02 0.755D-01-0.339D+00 0.126D+01
 Gap=     0.743 Goal=   None    Shift=    0.000
 RMSDP=1.27D-05 MaxDP=7.06D-05 DE=-7.09D-06 OVMax= 9.19D-05

 Cycle   6  Pass 1  IDiag  1:
 One-electron energy=-0.801675029619D+02
 1/2 <PG(P)>=          26.283496637279
 E= -40.1974877729265     Delta-E=       -0.000000041170 Rises=F Damp=F
 DIIS: error= 1.06D-06 at cycle   6 NSaved=   6.
 NSaved= 6 IEnMin= 6 EnMin= -40.1974877729265     IErMin= 6 ErrMin= 1.06D-06
 ErrMax= 1.06D-06 EMaxC= 1.00D-01 BMatC= 2.15D-11 BMatP= 1.80D-08
 IDIUse=1 WtCom= 1.00D+00 WtEn= 0.00D+00
 Coeff-Com:  0.106D-03-0.270D-03-0.400D-02 0.183D-01-0.794D-01 0.107D+01
 Coeff:      0.106D-03-0.270D-03-0.400D-02 0.183D-01-0.794D-01 0.107D+01
 Gap=     0.743 Goal=   None    Shift=    0.000
 RMSDP=4.80D-07 MaxDP=2.83D-06 DE=-4.12D-08 OVMax= 2.19D-06

 Cycle   7  Pass 1  IDiag  1:
 One-electron energy=-0.801674966187D+02
 1/2 <PG(P)>=          26.283490294067
 E= -40.1974877729634     Delta-E=       -0.000000000037 Rises=F Damp=F
 DIIS: error= 1.39D-07 at cycle   7 NSaved=   7.
 NSaved= 7 IEnMin= 7 EnMin= -40.1974877729634     IErMin= 7 ErrMin= 1.39D-07
 ErrMax= 1.39D-07 EMaxC= 1.00D-01 BMatC= 4.20D-13 BMatP= 2.15D-11
 IDIUse=1 WtCom= 1.00D+00 WtEn= 0.00D+00
 Coeff-Com:  0.428D-05-0.177D-04-0.196D-03 0.854D-03-0.253D-02-0.129D+00
 Coeff-Com:  0.113D+01
 Coeff:      0.428D-05-0.177D-04-0.196D-03 0.854D-03-0.253D-02-0.129D+00
 Coeff:      0.113D+01
 Gap=     0.743 Goal=   None    Shift=    0.000
 RMSDP=7.91D-08 MaxDP=4.62D-07 DE=-3.68D-11 OVMax= 3.58D-07

 Cycle   8  Pass 1  IDiag  1:
 One-electron energy=-0.801674963308D+02
 1/2 <PG(P)>=          26.283490006196
 E= -40.1974877729634     Delta-E=        0.000000000000 Rises=F Damp=F
 DIIS: error= 1.02D-08 at cycle   8 NSaved=   8.
 NSaved= 8 IEnMin= 7 EnMin= -40.1974877729634     IErMin= 8 ErrMin= 1.02D-08
 ErrMax= 1.02D-08 EMaxC= 1.00D-01 BMatC= 3.28D-15 BMatP= 4.20D-13
 IDIUse=1 WtCom= 1.00D+00 WtEn= 0.00D+00
 Coeff-Com:  0.194D-06 0.327D-06-0.134D-05 0.225D-05-0.369D-04 0.199D-01
 Coeff-Com: -0.194D+00 0.117D+01
 Coeff:      0.194D-06 0.327D-06-0.134D-05 0.225D-05-0.369D-04 0.199D-01
 Coeff:     -0.194D+00 0.117D+01
 Gap=     0.743 Goal=   None    Shift=    0.000
 RMSDP=4.92D-09 MaxDP=3.15D-08 DE= 2.84D-14 OVMax= 2.31D-08

 SCF Done:  E(RHF) =  -40.1974877730     A.U. after    8 cycles
             Convg  =    0.4917D-08             -V/T =  1.9995
 KE= 4.021865549467D+01 PE=-1.203861518255D+02 EE= 2.628349000620D+01
 Leave Link  502 at Fri Dec 20 10:04:51 2019, MaxMem=   33554432 cpu:       0.0
 (Enter d:\softwares\Gaussian09\l601.exe)
 Copying SCF densities to generalized density rwf, IOpCl= 0 IROHF=0.

 **********************************************************************

            Population analysis using the SCF density.

 **********************************************************************

 Orbital symmetries:
       Occupied  (A) (A) (T) (T) (T)
       Virtual   (A) (T) (T) (T) (T) (T) (T) (T) (T) (T) (A) (E)
                 (E) (A) (T) (T) (T) (T) (T) (T) (T) (T) (T) (E)
                 (E) (A) (T) (T) (T)
 The electronic state is 1-A.
 Alpha  occ. eigenvalues --  -11.20694  -0.95042  -0.54763  -0.54763  -0.54763
 Alpha virt. eigenvalues --    0.19542   0.27706   0.27706   0.27706   0.58836
 Alpha virt. eigenvalues --    0.58836   0.58836   0.89922   0.89922   0.89922
 Alpha virt. eigenvalues --    0.95791   1.13450   1.13450   1.25965   1.70262
 Alpha virt. eigenvalues --    1.70262   1.70262   1.91365   1.91365   1.91365
 Alpha virt. eigenvalues --    2.23012   2.23012   2.23012   2.57652   2.57652
 Alpha virt. eigenvalues --    2.81166   2.84067   2.84067   2.84067
          Condensed to atoms (all electrons):
              1          2          3          4          5
     1  C    4.442410   0.418384   0.418384   0.418384   0.418384
     2  H    0.418384   0.618811  -0.022061  -0.022061  -0.022061
     3  H    0.418384  -0.022061   0.618811  -0.022061  -0.022061
     4  H    0.418384  -0.022061  -0.022061   0.618811  -0.022061
     5  H    0.418384  -0.022061  -0.022061  -0.022061   0.618811
 Mulliken atomic charges:
              1
     1  C   -0.115947
     2  H    0.028987
     3  H    0.028987
     4  H    0.028987
     5  H    0.028987
 Sum of Mulliken atomic charges =   0.00000
 Mulliken charges with hydrogens summed into heavy atoms:
              1
     1  C    0.000000
 Sum of Mulliken charges with hydrogens summed into heavy atoms =   0.00000
 Electronic spatial extent (au):  <R**2>=             34.8456
 Charge=              0.0000 electrons
 Dipole moment (field-independent basis, Debye):
    X=              0.0000    Y=              0.0000    Z=              0.0000  Tot=              0.0000
 Quadrupole moment (field-independent basis, Debye-Ang):
   XX=             -8.2906   YY=             -8.2906   ZZ=             -8.2906
   XY=              0.0000   XZ=              0.0000   YZ=              0.0000
 Traceless Quadrupole moment (field-independent basis, Debye-Ang):
   XX=              0.0000   YY=              0.0000   ZZ=              0.0000
   XY=              0.0000   XZ=              0.0000   YZ=              0.0000
 Octapole moment (field-independent basis, Debye-Ang**2):
  XXX=              0.0000  YYY=              0.0000  ZZZ=              0.0000  XYY=              0.0000
  XXY=              0.0000  XXZ=              0.0000  XZZ=              0.0000  YZZ=              0.0000
  YYZ=              0.0000  XYZ=              0.5748
 Hexadecapole moment (field-independent basis, Debye-Ang**3):
 XXXX=            -15.6155 YYYY=            -15.6155 ZZZZ=            -15.6155 XXXY=              0.0000
 XXXZ=              0.0000 YYYX=              0.0000 YYYZ=              0.0000 ZZZX=              0.0000
 ZZZY=              0.0000 XXYY=             -4.7466 XXZZ=             -4.7466 YYZZ=             -4.7466
 XXYZ=              0.0000 YYXZ=              0.0000 ZZXY=              0.0000
 N-N= 1.368651855168D+01 E-N=-1.203861518928D+02  KE= 4.021865549467D+01
 Symmetry A    KE= 3.451986551044D+01
 Symmetry B1   KE= 1.899596661410D+00
 Symmetry B2   KE= 1.899596661410D+00
 Symmetry B3   KE= 1.899596661410D+00
 No NMR shielding tensors so no spin-rotation constants.
 Leave Link  601 at Fri Dec 20 10:04:51 2019, MaxMem=   33554432 cpu:       0.0
 (Enter d:\softwares\Gaussian09\l9999.exe)

 Test job not archived.
 1|1|UNPC-AMADEUS|SP|RHF|CC-pVDZ|C1H4|ENIGM|20-Dec-2019|0||#p hf geom=c
 onnectivity output=wfn cc-pVDZ IOp(5/33=1)||CH4-HFSCF-cc-pVDZ||0,1|C,0
 ,-0.49780383,0.30014641,0.|H,0,-0.1411494,-0.70866359,0.|H,0,-0.141130
 99,0.8045446,0.8736515|H,0,-0.14113099,0.8045446,-0.8736515|H,0,-1.567
 80383,0.30015959,0.||Version=IA32W-G09RevB.01|State=1-A|HF=-40.1974878
 |RMSD=4.917e-009|Dipole=0.,0.,0.|Quadrupole=0.,0.,0.,0.,0.,0.|PG=T [O(
 C1),4C3(H1)]||@

 Writing a WFN file to  .
